file 1429732 1763775477                                         
version 3
run LargeNet-0-20251122-02:37:54-345067
attr configname LargeNet
attr datetime 20251122-02:37:54
attr datetimef 20251122-023754
attr experiment LargeNet
attr inifile omnetpp.ini
attr iterationvars ""
attr iterationvarsd ""
attr iterationvarsf ""
attr measurement ""
attr network LargeNet
attr processid 345067
attr repetition 0
attr replication #0
attr resultdir results
attr runnumber 0
attr seedset 0
config image-path ../../images
config network LargeNet
config **.host*.encap.typename ""
config **.host*.llc.typename Ieee8022Llc
config **.host*.eth.typename LayeredEthernetInterface
config **.host*.ethernet.typename EthernetLayer
config **.host*.eth.bitrate 1Gbps
config **.switch8.**.address "\"AAAAAA000008\""
config **.switch9.**.address "\"AAAAAA000009\""
config **.switch10.**.address "\"AAAAAA00000A\""
config **.switch11.**.address "\"AAAAAA00000B\""
config **.host2.cli.destAddress "\"LargeNet.host1\""
config **.host3.cli.destAddress "\"LargeNet.host1\""
config **.host4.cli.destAddress "\"LargeNet.host6\""
config **.host5.cli.destAddress "\"LargeNet.host3\""
config **.host6.cli.destAddress "\"LargeNet.host3\""
config **.host*.cli.startTime 10ms
config sim-time-limit 200s
config **.vector-recording false
config **.visualize true
config **.agingTime 1s
config network SwitchNetwork
config **.switch1.**.address "\"AAAAAA000001\""
config **.switch2.**.address "\"AAAAAA000002\""
config **.switch3.**.address "\"AAAAAA000003\""
config **.switch4.**.address "\"AAAAAA000004\""
config **.switch5.**.address "\"AAAAAA000005\""
config **.switch6.**.address "\"AAAAAA000006\""
config **.switch7.**.address "\"AAAAAA000007\""
config **.switch*.eth[*].typename LayeredEthernetInterface
config **.switch*.ethernet.typename EthernetLayer
config **.switch*.eth[*].bitrate 1Gbps
config **.macLayer.server.serveSchedulingPriority -1

vector 0 LargeNet.switch1.bridging packetDropped:vector(packetBytes) ETV
attr interpolationmode none
attr recordingmode vector(packetBytes)
attr title "packets dropped, packetBytes"
vector 1 LargeNet.switch1.ethernet.macHeaderInserter incomingPacketLengths:vector ETV
attr interpolationmode none
attr recordingmode vector
attr source "packetLength(merge(packetPushedIn, packetPulledIn))"
attr title "incoming packet lengths"
attr unit b
vector 2 LargeNet.switch1.ethernet.macHeaderInserter incomingDataRate:vector ETV
attr interpolationmode linear
attr recordingmode vector
attr source "throughput(merge(packetPushedIn, packetPulledIn))"
attr title "incoming data rate"
attr unit bps
vector 3 LargeNet.switch1.ethernet.macHeaderInserter outgoingPacketLengths:vector ETV
attr interpolationmode none
attr recordingmode vector
attr source "packetLength(merge(packetPushedOut, packetPulledOut))"
attr title "outgoing packet lengths"
attr unit b
vector 4 LargeNet.switch1.ethernet.macHeaderInserter outgoingDataRate:vector ETV
attr interpolationmode linear
attr recordingmode vector
attr source "throughput(merge(packetPushedOut, packetPulledOut))"
attr title "outgoing data rate"
attr unit bps
vector 5 LargeNet.switch1.ethernet.macHeaderInserter flowIncomingPacketLengths:vector ETV
attr interpolationmode none
attr recordingmode vector
attr source "packetLength(demuxFlow(merge(packetPushedIn, packetPulledIn)))"
attr title "flow specific incoming packet lengths"
attr unit b
vector 6 LargeNet.switch1.ethernet.macHeaderInserter flowIncomingDataRate:vector ETV
attr interpolationmode linear
attr recordingmode vector
attr source "throughput(demuxFlow(merge(packetPushedIn, packetPulledIn)))"
attr title "flow specific incoming data rate"
attr unit bps
vector 7 LargeNet.switch1.ethernet.macHeaderInserter flowOutgoingPacketLengths:vector ETV
attr interpolationmode none
attr recordingmode vector
attr source "packetLength(demuxFlow(merge(packetPushedOut, packetPulledOut)))"
attr title "flow specific outgoing packet lengths"
attr unit b
vector 8 LargeNet.switch1.ethernet.macHeaderInserter flowOutgoingDataRate:vector ETV
attr interpolationmode linear
attr recordingmode vector
attr source "throughput(demuxFlow(merge(packetPushedOut, packetPulledOut)))"
attr title "flow specific outgoing data rate"
attr unit bps
vector 9 LargeNet.switch1.ethernet.paddingInserter incomingPacketLengths:vector ETV
attr interpolationmode none
attr recordingmode vector
attr source "packetLength(merge(packetPushedIn, packetPulledIn))"
attr title "incoming packet lengths"
attr unit b
vector 10 LargeNet.switch1.ethernet.paddingInserter incomingDataRate:vector ETV
attr interpolationmode linear
attr recordingmode vector
attr source "throughput(merge(packetPushedIn, packetPulledIn))"
attr title "incoming data rate"
attr unit bps
vector 11 LargeNet.switch1.ethernet.paddingInserter outgoingPacketLengths:vector ETV
attr interpolationmode none
attr recordingmode vector
attr source "packetLength(merge(packetPushedOut, packetPulledOut))"
attr title "outgoing packet lengths"
attr unit b
vector 12 LargeNet.switch1.ethernet.paddingInserter outgoingDataRate:vector ETV
attr interpolationmode linear
attr recordingmode vector
attr source "throughput(merge(packetPushedOut, packetPulledOut))"
attr title "outgoing data rate"
attr unit bps
vector 13 LargeNet.switch1.ethernet.paddingInserter flowIncomingPacketLengths:vector ETV
attr interpolationmode none
attr recordingmode vector
attr source "packetLength(demuxFlow(merge(packetPushedIn, packetPulledIn)))"
attr title "flow specific incoming packet lengths"
attr unit b
vector 14 LargeNet.switch1.ethernet.paddingInserter flowIncomingDataRate:vector ETV
attr interpolationmode linear
attr recordingmode vector
attr source "throughput(demuxFlow(merge(packetPushedIn, packetPulledIn)))"
attr title "flow specific incoming data rate"
attr unit bps
vector 15 LargeNet.switch1.ethernet.paddingInserter flowOutgoingPacketLengths:vector ETV
attr interpolationmode none
attr recordingmode vector
attr source "packetLength(demuxFlow(merge(packetPushedOut, packetPulledOut)))"
attr title "flow specific outgoing packet lengths"
attr unit b
vector 16 LargeNet.switch1.ethernet.paddingInserter flowOutgoingDataRate:vector ETV
attr interpolationmode linear
attr recordingmode vector
attr source "throughput(demuxFlow(merge(packetPushedOut, packetPulledOut)))"
attr title "flow specific outgoing data rate"
attr unit bps
vector 17 LargeNet.switch1.ethernet.fcsInserter incomingPacketLengths:vector ETV
attr interpolationmode none
attr recordingmode vector
attr source "packetLength(merge(packetPushedIn, packetPulledIn))"
attr title "incoming packet lengths"
attr unit b
vector 18 LargeNet.switch1.ethernet.fcsInserter incomingDataRate:vector ETV
attr interpolationmode linear
attr recordingmode vector
attr source "throughput(merge(packetPushedIn, packetPulledIn))"
attr title "incoming data rate"
attr unit bps
vector 19 LargeNet.switch1.ethernet.fcsInserter outgoingPacketLengths:vector ETV
attr interpolationmode none
attr recordingmode vector
attr source "packetLength(merge(packetPushedOut, packetPulledOut))"
attr title "outgoing packet lengths"
attr unit b
vector 20 LargeNet.switch1.ethernet.fcsInserter outgoingDataRate:vector ETV
attr interpolationmode linear
attr recordingmode vector
attr source "throughput(merge(packetPushedOut, packetPulledOut))"
attr title "outgoing data rate"
attr unit bps
vector 21 LargeNet.switch1.ethernet.fcsInserter flowIncomingPacketLengths:vector ETV
attr interpolationmode none
attr recordingmode vector
attr source "packetLength(demuxFlow(merge(packetPushedIn, packetPulledIn)))"
attr title "flow specific incoming packet lengths"
attr unit b
vector 22 LargeNet.switch1.ethernet.fcsInserter flowIncomingDataRate:vector ETV
attr interpolationmode linear
attr recordingmode vector
attr source "throughput(demuxFlow(merge(packetPushedIn, packetPulledIn)))"
attr title "flow specific incoming data rate"
attr unit bps
vector 23 LargeNet.switch1.ethernet.fcsInserter flowOutgoingPacketLengths:vector ETV
attr interpolationmode none
attr recordingmode vector
attr source "packetLength(demuxFlow(merge(packetPushedOut, packetPulledOut)))"
attr title "flow specific outgoing packet lengths"
attr unit b
vector 24 LargeNet.switch1.ethernet.fcsInserter flowOutgoingDataRate:vector ETV
attr interpolationmode linear
attr recordingmode vector
attr source "throughput(demuxFlow(merge(packetPushedOut, packetPulledOut)))"
attr title "flow specific outgoing data rate"
attr unit bps
vector 25 LargeNet.switch1.ethernet.macHeaderChecker incomingPacketLengths:vector ETV
attr interpolationmode none
attr recordingmode vector
attr source "packetLength(merge(packetPushedIn, packetPulledIn))"
attr title "incoming packet lengths"
attr unit b
vector 26 LargeNet.switch1.ethernet.macHeaderChecker incomingDataRate:vector ETV
attr interpolationmode linear
attr recordingmode vector
attr source "throughput(merge(packetPushedIn, packetPulledIn))"
attr title "incoming data rate"
attr unit bps
vector 27 LargeNet.switch1.ethernet.macHeaderChecker outgoingPacketLengths:vector ETV
attr interpolationmode none
attr recordingmode vector
attr source "packetLength(merge(packetPushedOut, packetPulledOut))"
attr title "outgoing packet lengths"
attr unit b
vector 28 LargeNet.switch1.ethernet.macHeaderChecker outgoingDataRate:vector ETV
attr interpolationmode linear
attr recordingmode vector
attr source "throughput(merge(packetPushedOut, packetPulledOut))"
attr title "outgoing data rate"
attr unit bps
vector 29 LargeNet.switch1.ethernet.macHeaderChecker droppedPacketLengths:vector ETV
attr interpolationmode none
attr recordingmode vector
attr source packetLength(packetDropped)
attr title "dropped packet lengths"
attr unit b
vector 30 LargeNet.switch1.ethernet.macHeaderChecker droppedDataRate:vector ETV
attr interpolationmode linear
attr recordingmode vector
attr source throughput(packetDropped)
attr title "dropped data rate"
attr unit bps
vector 31 LargeNet.switch1.ethernet.macHeaderChecker flowIncomingPacketLengths:vector ETV
attr interpolationmode none
attr recordingmode vector
attr source "packetLength(demuxFlow(merge(packetPushedIn, packetPulledIn)))"
attr title "flow specific incoming packet lengths"
attr unit b
vector 32 LargeNet.switch1.ethernet.macHeaderChecker flowIncomingDataRate:vector ETV
attr interpolationmode linear
attr recordingmode vector
attr source "throughput(demuxFlow(merge(packetPushedIn, packetPulledIn)))"
attr title "flow specific incoming data rate"
attr unit bps
vector 33 LargeNet.switch1.ethernet.macHeaderChecker flowOutgoingPacketLengths:vector ETV
attr interpolationmode none
attr recordingmode vector
attr source "packetLength(demuxFlow(merge(packetPushedOut, packetPulledOut)))"
attr title "flow specific outgoing packet lengths"
attr unit b
vector 34 LargeNet.switch1.ethernet.macHeaderChecker flowOutgoingDataRate:vector ETV
attr interpolationmode linear
attr recordingmode vector
attr source "throughput(demuxFlow(merge(packetPushedOut, packetPulledOut)))"
attr title "flow specific outgoing data rate"
attr unit bps
vector 35 LargeNet.switch1.ethernet.macHeaderChecker flowDroppedPacketLengths:vector ETV
attr interpolationmode none
attr recordingmode vector
attr source packetLength(demuxFlow(packetDropped))
attr title "flow specific dropped packet lengths"
attr unit b
vector 36 LargeNet.switch1.ethernet.macHeaderChecker flowDroppedDataRate:vector ETV
attr interpolationmode linear
attr recordingmode vector
attr source throughput(demuxFlow(packetDropped))
attr title "flow specific dropped data rate"
attr unit bps
vector 37 LargeNet.switch1.ethernet.fcsChecker incomingPacketLengths:vector ETV
attr interpolationmode none
attr recordingmode vector
attr source "packetLength(merge(packetPushedIn, packetPulledIn))"
attr title "incoming packet lengths"
attr unit b
vector 38 LargeNet.switch1.ethernet.fcsChecker incomingDataRate:vector ETV
attr interpolationmode linear
attr recordingmode vector
attr source "throughput(merge(packetPushedIn, packetPulledIn))"
attr title "incoming data rate"
attr unit bps
vector 39 LargeNet.switch1.ethernet.fcsChecker outgoingPacketLengths:vector ETV
attr interpolationmode none
attr recordingmode vector
attr source "packetLength(merge(packetPushedOut, packetPulledOut))"
attr title "outgoing packet lengths"
attr unit b
vector 40 LargeNet.switch1.ethernet.fcsChecker outgoingDataRate:vector ETV
attr interpolationmode linear
attr recordingmode vector
attr source "throughput(merge(packetPushedOut, packetPulledOut))"
attr title "outgoing data rate"
attr unit bps
vector 41 LargeNet.switch1.ethernet.fcsChecker droppedPacketLengths:vector ETV
attr interpolationmode none
attr recordingmode vector
attr source packetLength(packetDropped)
attr title "dropped packet lengths"
attr unit b
vector 42 LargeNet.switch1.ethernet.fcsChecker droppedDataRate:vector ETV
attr interpolationmode linear
attr recordingmode vector
attr source throughput(packetDropped)
attr title "dropped data rate"
attr unit bps
vector 43 LargeNet.switch1.ethernet.fcsChecker flowIncomingPacketLengths:vector ETV
attr interpolationmode none
attr recordingmode vector
attr source "packetLength(demuxFlow(merge(packetPushedIn, packetPulledIn)))"
attr title "flow specific incoming packet lengths"
attr unit b
vector 44 LargeNet.switch1.ethernet.fcsChecker flowIncomingDataRate:vector ETV
attr interpolationmode linear
attr recordingmode vector
attr source "throughput(demuxFlow(merge(packetPushedIn, packetPulledIn)))"
attr title "flow specific incoming data rate"
attr unit bps
vector 45 LargeNet.switch1.ethernet.fcsChecker flowOutgoingPacketLengths:vector ETV
attr interpolationmode none
attr recordingmode vector
attr source "packetLength(demuxFlow(merge(packetPushedOut, packetPulledOut)))"
attr title "flow specific outgoing packet lengths"
attr unit b
vector 46 LargeNet.switch1.ethernet.fcsChecker flowOutgoingDataRate:vector ETV
attr interpolationmode linear
attr recordingmode vector
attr source "throughput(demuxFlow(merge(packetPushedOut, packetPulledOut)))"
attr title "flow specific outgoing data rate"
attr unit bps
vector 47 LargeNet.switch1.ethernet.fcsChecker flowDroppedPacketLengths:vector ETV
attr interpolationmode none
attr recordingmode vector
attr source packetLength(demuxFlow(packetDropped))
attr title "flow specific dropped packet lengths"
attr unit b
vector 48 LargeNet.switch1.ethernet.fcsChecker flowDroppedDataRate:vector ETV
attr interpolationmode linear
attr recordingmode vector
attr source throughput(demuxFlow(packetDropped))
attr title "flow specific dropped data rate"
attr unit bps
vector 49 LargeNet.switch1.ieee8021q.qTagHeaderInserter incomingPacketLengths:vector ETV
attr interpolationmode none
attr recordingmode vector
attr source "packetLength(merge(packetPushedIn, packetPulledIn))"
attr title "incoming packet lengths"
attr unit b
vector 50 LargeNet.switch1.ieee8021q.qTagHeaderInserter incomingDataRate:vector ETV
attr interpolationmode linear
attr recordingmode vector
attr source "throughput(merge(packetPushedIn, packetPulledIn))"
attr title "incoming data rate"
attr unit bps
vector 51 LargeNet.switch1.ieee8021q.qTagHeaderInserter outgoingPacketLengths:vector ETV
attr interpolationmode none
attr recordingmode vector
attr source "packetLength(merge(packetPushedOut, packetPulledOut))"
attr title "outgoing packet lengths"
attr unit b
vector 52 LargeNet.switch1.ieee8021q.qTagHeaderInserter outgoingDataRate:vector ETV
attr interpolationmode linear
attr recordingmode vector
attr source "throughput(merge(packetPushedOut, packetPulledOut))"
attr title "outgoing data rate"
attr unit bps
vector 53 LargeNet.switch1.ieee8021q.qTagHeaderInserter flowIncomingPacketLengths:vector ETV
attr interpolationmode none
attr recordingmode vector
attr source "packetLength(demuxFlow(merge(packetPushedIn, packetPulledIn)))"
attr title "flow specific incoming packet lengths"
attr unit b
vector 54 LargeNet.switch1.ieee8021q.qTagHeaderInserter flowIncomingDataRate:vector ETV
attr interpolationmode linear
attr recordingmode vector
attr source "throughput(demuxFlow(merge(packetPushedIn, packetPulledIn)))"
attr title "flow specific incoming data rate"
attr unit bps
vector 55 LargeNet.switch1.ieee8021q.qTagHeaderInserter flowOutgoingPacketLengths:vector ETV
attr interpolationmode none
attr recordingmode vector
attr source "packetLength(demuxFlow(merge(packetPushedOut, packetPulledOut)))"
attr title "flow specific outgoing packet lengths"
attr unit b
vector 56 LargeNet.switch1.ieee8021q.qTagHeaderInserter flowOutgoingDataRate:vector ETV
attr interpolationmode linear
attr recordingmode vector
attr source "throughput(demuxFlow(merge(packetPushedOut, packetPulledOut)))"
attr title "flow specific outgoing data rate"
attr unit bps
vector 57 LargeNet.switch1.ieee8021q.qTagHeaderChecker incomingPacketLengths:vector ETV
attr interpolationmode none
attr recordingmode vector
attr source "packetLength(merge(packetPushedIn, packetPulledIn))"
attr title "incoming packet lengths"
attr unit b
vector 58 LargeNet.switch1.ieee8021q.qTagHeaderChecker incomingDataRate:vector ETV
attr interpolationmode linear
attr recordingmode vector
attr source "throughput(merge(packetPushedIn, packetPulledIn))"
attr title "incoming data rate"
attr unit bps
vector 59 LargeNet.switch1.ieee8021q.qTagHeaderChecker outgoingPacketLengths:vector ETV
attr interpolationmode none
attr recordingmode vector
attr source "packetLength(merge(packetPushedOut, packetPulledOut))"
attr title "outgoing packet lengths"
attr unit b
vector 60 LargeNet.switch1.ieee8021q.qTagHeaderChecker outgoingDataRate:vector ETV
attr interpolationmode linear
attr recordingmode vector
attr source "throughput(merge(packetPushedOut, packetPulledOut))"
attr title "outgoing data rate"
attr unit bps
vector 61 LargeNet.switch1.ieee8021q.qTagHeaderChecker droppedPacketLengths:vector ETV
attr interpolationmode none
attr recordingmode vector
attr source packetLength(packetDropped)
attr title "dropped packet lengths"
attr unit b
vector 62 LargeNet.switch1.ieee8021q.qTagHeaderChecker droppedDataRate:vector ETV
attr interpolationmode linear
attr recordingmode vector
attr source throughput(packetDropped)
attr title "dropped data rate"
attr unit bps
vector 63 LargeNet.switch1.ieee8021q.qTagHeaderChecker flowIncomingPacketLengths:vector ETV
attr interpolationmode none
attr recordingmode vector
attr source "packetLength(demuxFlow(merge(packetPushedIn, packetPulledIn)))"
attr title "flow specific incoming packet lengths"
attr unit b
vector 64 LargeNet.switch1.ieee8021q.qTagHeaderChecker flowIncomingDataRate:vector ETV
attr interpolationmode linear
attr recordingmode vector
attr source "throughput(demuxFlow(merge(packetPushedIn, packetPulledIn)))"
attr title "flow specific incoming data rate"
attr unit bps
vector 65 LargeNet.switch1.ieee8021q.qTagHeaderChecker flowOutgoingPacketLengths:vector ETV
attr interpolationmode none
attr recordingmode vector
attr source "packetLength(demuxFlow(merge(packetPushedOut, packetPulledOut)))"
attr title "flow specific outgoing packet lengths"
attr unit b
vector 66 LargeNet.switch1.ieee8021q.qTagHeaderChecker flowOutgoingDataRate:vector ETV
attr interpolationmode linear
attr recordingmode vector
attr source "throughput(demuxFlow(merge(packetPushedOut, packetPulledOut)))"
attr title "flow specific outgoing data rate"
attr unit bps
vector 67 LargeNet.switch1.ieee8021q.qTagHeaderChecker flowDroppedPacketLengths:vector ETV
attr interpolationmode none
attr recordingmode vector
attr source packetLength(demuxFlow(packetDropped))
attr title "flow specific dropped packet lengths"
attr unit b
vector 68 LargeNet.switch1.ieee8021q.qTagHeaderChecker flowDroppedDataRate:vector ETV
attr interpolationmode linear
attr recordingmode vector
attr source throughput(demuxFlow(packetDropped))
attr title "flow specific dropped data rate"
attr unit bps
vector 69 LargeNet.switch1.ieee8021r.rTagHeaderInserter incomingPacketLengths:vector ETV
attr interpolationmode none
attr recordingmode vector
attr source "packetLength(merge(packetPushedIn, packetPulledIn))"
attr title "incoming packet lengths"
attr unit b
vector 70 LargeNet.switch1.ieee8021r.rTagHeaderInserter incomingDataRate:vector ETV
attr interpolationmode linear
attr recordingmode vector
attr source "throughput(merge(packetPushedIn, packetPulledIn))"
attr title "incoming data rate"
attr unit bps
vector 71 LargeNet.switch1.ieee8021r.rTagHeaderInserter outgoingPacketLengths:vector ETV
attr interpolationmode none
attr recordingmode vector
attr source "packetLength(merge(packetPushedOut, packetPulledOut))"
attr title "outgoing packet lengths"
attr unit b
vector 72 LargeNet.switch1.ieee8021r.rTagHeaderInserter outgoingDataRate:vector ETV
attr interpolationmode linear
attr recordingmode vector
attr source "throughput(merge(packetPushedOut, packetPulledOut))"
attr title "outgoing data rate"
attr unit bps
vector 73 LargeNet.switch1.ieee8021r.rTagHeaderInserter flowIncomingPacketLengths:vector ETV
attr interpolationmode none
attr recordingmode vector
attr source "packetLength(demuxFlow(merge(packetPushedIn, packetPulledIn)))"
attr title "flow specific incoming packet lengths"
attr unit b
vector 74 LargeNet.switch1.ieee8021r.rTagHeaderInserter flowIncomingDataRate:vector ETV
attr interpolationmode linear
attr recordingmode vector
attr source "throughput(demuxFlow(merge(packetPushedIn, packetPulledIn)))"
attr title "flow specific incoming data rate"
attr unit bps
vector 75 LargeNet.switch1.ieee8021r.rTagHeaderInserter flowOutgoingPacketLengths:vector ETV
attr interpolationmode none
attr recordingmode vector
attr source "packetLength(demuxFlow(merge(packetPushedOut, packetPulledOut)))"
attr title "flow specific outgoing packet lengths"
attr unit b
vector 76 LargeNet.switch1.ieee8021r.rTagHeaderInserter flowOutgoingDataRate:vector ETV
attr interpolationmode linear
attr recordingmode vector
attr source "throughput(demuxFlow(merge(packetPushedOut, packetPulledOut)))"
attr title "flow specific outgoing data rate"
attr unit bps
vector 77 LargeNet.switch1.ieee8021r.rTagHeaderChecker incomingPacketLengths:vector ETV
attr interpolationmode none
attr recordingmode vector
attr source "packetLength(merge(packetPushedIn, packetPulledIn))"
attr title "incoming packet lengths"
attr unit b
vector 78 LargeNet.switch1.ieee8021r.rTagHeaderChecker incomingDataRate:vector ETV
attr interpolationmode linear
attr recordingmode vector
attr source "throughput(merge(packetPushedIn, packetPulledIn))"
attr title "incoming data rate"
attr unit bps
vector 79 LargeNet.switch1.ieee8021r.rTagHeaderChecker outgoingPacketLengths:vector ETV
attr interpolationmode none
attr recordingmode vector
attr source "packetLength(merge(packetPushedOut, packetPulledOut))"
attr title "outgoing packet lengths"
attr unit b
vector 80 LargeNet.switch1.ieee8021r.rTagHeaderChecker outgoingDataRate:vector ETV
attr interpolationmode linear
attr recordingmode vector
attr source "throughput(merge(packetPushedOut, packetPulledOut))"
attr title "outgoing data rate"
attr unit bps
vector 81 LargeNet.switch1.ieee8021r.rTagHeaderChecker droppedPacketLengths:vector ETV
attr interpolationmode none
attr recordingmode vector
attr source packetLength(packetDropped)
attr title "dropped packet lengths"
attr unit b
vector 82 LargeNet.switch1.ieee8021r.rTagHeaderChecker droppedDataRate:vector ETV
attr interpolationmode linear
attr recordingmode vector
attr source throughput(packetDropped)
attr title "dropped data rate"
attr unit bps
vector 83 LargeNet.switch1.ieee8021r.rTagHeaderChecker flowIncomingPacketLengths:vector ETV
attr interpolationmode none
attr recordingmode vector
attr source "packetLength(demuxFlow(merge(packetPushedIn, packetPulledIn)))"
attr title "flow specific incoming packet lengths"
attr unit b
vector 84 LargeNet.switch1.ieee8021r.rTagHeaderChecker flowIncomingDataRate:vector ETV
attr interpolationmode linear
attr recordingmode vector
attr source "throughput(demuxFlow(merge(packetPushedIn, packetPulledIn)))"
attr title "flow specific incoming data rate"
attr unit bps
vector 85 LargeNet.switch1.ieee8021r.rTagHeaderChecker flowOutgoingPacketLengths:vector ETV
attr interpolationmode none
attr recordingmode vector
attr source "packetLength(demuxFlow(merge(packetPushedOut, packetPulledOut)))"
attr title "flow specific outgoing packet lengths"
attr unit b
vector 86 LargeNet.switch1.ieee8021r.rTagHeaderChecker flowOutgoingDataRate:vector ETV
attr interpolationmode linear
attr recordingmode vector
attr source "throughput(demuxFlow(merge(packetPushedOut, packetPulledOut)))"
attr title "flow specific outgoing data rate"
attr unit bps
vector 87 LargeNet.switch1.ieee8021r.rTagHeaderChecker flowDroppedPacketLengths:vector ETV
attr interpolationmode none
attr recordingmode vector
attr source packetLength(demuxFlow(packetDropped))
attr title "flow specific dropped packet lengths"
attr unit b
vector 88 LargeNet.switch1.ieee8021r.rTagHeaderChecker flowDroppedDataRate:vector ETV
attr interpolationmode linear
attr recordingmode vector
attr source throughput(demuxFlow(packetDropped))
attr title "flow specific dropped data rate"
attr unit bps
vector 89 LargeNet.switch1.eth[0].macLayer.queue queueLength:vector ETV
attr autoWarmupFilter false
attr interpolationmode sample-hold
attr recordingmode vector
attr source "warmup(atomic(constant0(packetPushEnded) + count(packetPushStarted) - count(packetPulled) - count(packetRemoved) - count(packetDropped)))"
attr title "queue length"
attr unit pk
vector 90 LargeNet.switch1.eth[0].macLayer.queue queueBitLength:vector ETV
attr autoWarmupFilter false
attr interpolationmode sample-hold
attr recordingmode vector
attr source "warmup(atomic(constant0(packetPushEnded) + sum(packetLength(packetPushStarted)) - sum(packetLength(packetPulled)) - sum(packetLength(packetRemoved)) - sum(packetLength(packetDropped))))"
attr title "queue bit length"
attr unit b
vector 91 LargeNet.switch1.eth[0].macLayer.queue queueingTime:vector ETV
attr interpolationmode none
attr recordingmode vector
attr source queueingTime(packetPulled)
attr title "queueing times"
attr unit s
vector 92 LargeNet.switch1.eth[0].macLayer.queue incomingPacketLengths:vector ETV
attr interpolationmode none
attr recordingmode vector
attr source packetLength(packetPushStarted)
attr title "incoming packet lengths"
attr unit b
vector 93 LargeNet.switch1.eth[0].macLayer.queue incomingDataRate:vector ETV
attr interpolationmode linear
attr recordingmode vector
attr source throughput(packetPushStarted)
attr title "incoming datarate"
attr unit bps
vector 94 LargeNet.switch1.eth[0].macLayer.queue outgoingPacketLengths:vector ETV
attr interpolationmode none
attr recordingmode vector
attr source packetLength(packetPulled)
attr title "outgoing packet lengths"
attr unit b
vector 95 LargeNet.switch1.eth[0].macLayer.queue outgoingDataRate:vector ETV
attr interpolationmode linear
attr recordingmode vector
attr source throughput(packetPulled)
attr title "outgoing datarate"
attr unit bps
vector 96 LargeNet.switch1.eth[0].macLayer.queue droppedPacketLengthsQueueOverflow:vector ETV
attr interpolationmode none
attr recordingmode vector
attr source packetLength(packetDropReasonIsQueueOverflow(packetDropped))
attr title "dropped packet lengths: queue overflow"
attr unit b
vector 97 LargeNet.switch1.eth[0].macLayer.queue flowQueueingTime:vector ETV
attr interpolationmode none
attr recordingmode vector
attr source queueingTime(demuxFlow(packetPulled))
attr title "flow queueing times"
attr unit s
vector 98 LargeNet.switch1.eth[0].macLayer.queue flowIncomingDataRate:vector ETV
attr interpolationmode linear
attr recordingmode vector
attr source throughput(flowPacketLength(demuxFlow(packetPushStarted)))
attr title "flow specific incoming data rate"
attr unit bps
vector 99 LargeNet.switch1.eth[0].macLayer.queue flowOutgoingDataRate:vector ETV
attr interpolationmode linear
attr recordingmode vector
attr source throughput(flowPacketLength(demuxFlow(packetPulled)))
attr title "flow specific outgoing data rate"
attr unit bps
vector 100 LargeNet.switch1.eth[0].macLayer.server incomingPacketLengths:vector ETV
attr interpolationmode none
attr recordingmode vector
attr source packetLength(packetPulled)
attr title "incoming packet lengths"
attr unit b
vector 101 LargeNet.switch1.eth[0].macLayer.server incomingDataRate:vector ETV
attr interpolationmode linear
attr recordingmode vector
attr source throughput(packetPulled)
attr title "incoming datarate"
attr unit bps
vector 102 LargeNet.switch1.eth[0].macLayer.server outgoingPacketLengths:vector ETV
attr interpolationmode none
attr recordingmode vector
attr source packetLength(packetPushed)
attr title "outgoing packet lengths"
attr unit b
vector 103 LargeNet.switch1.eth[0].macLayer.server outgoingDataRate:vector ETV
attr interpolationmode linear
attr recordingmode vector
attr source throughput(packetPushed)
attr title "outgoing datarate"
attr unit bps
vector 104 LargeNet.switch1.eth[0].macLayer.outboundEmitter incomingPacketLengths:vector ETV
attr interpolationmode none
attr recordingmode vector
attr source "packetLength(merge(packetPushedIn, packetPulledIn))"
attr title "incoming packet lengths"
attr unit b
vector 105 LargeNet.switch1.eth[0].macLayer.outboundEmitter incomingDataRate:vector ETV
attr interpolationmode linear
attr recordingmode vector
attr source "throughput(merge(packetPushedIn, packetPulledIn))"
attr title "incoming data rate"
attr unit bps
vector 106 LargeNet.switch1.eth[0].macLayer.outboundEmitter outgoingPacketLengths:vector ETV
attr interpolationmode none
attr recordingmode vector
attr source "packetLength(merge(packetPushedOut, packetPulledOut))"
attr title "outgoing packet lengths"
attr unit b
vector 107 LargeNet.switch1.eth[0].macLayer.outboundEmitter outgoingDataRate:vector ETV
attr interpolationmode linear
attr recordingmode vector
attr source "throughput(merge(packetPushedOut, packetPulledOut))"
attr title "outgoing data rate"
attr unit bps
vector 108 LargeNet.switch1.eth[0].macLayer.outboundEmitter flowIncomingPacketLengths:vector ETV
attr interpolationmode none