file 198632 1763764929                                          
version 3
run WiredDHCP-0-20251121-23:41:54-261221
attr configname WiredDHCP
attr datetime 20251121-23:41:54
attr datetimef 20251121-234154
attr experiment WiredDHCP
attr inifile omnetpp.ini
attr iterationvars ""
attr iterationvarsd ""
attr iterationvarsf ""
attr measurement ""
attr network WiredNetWithDHCP
attr processid 261221
attr repetition 0
attr replication #0
attr resultdir results
attr runnumber 0
attr seedset 0
config image-path ../../images
config description "Hosts configured via DHCP"
config network WiredNetWithDHCP
config *.numHosts 10
config **.client[*].numApps 1
config **.client[*].app[0].typename DhcpClient
config **.client[*].app[0].startTime "uniform(0s, 1s)"
config **.server.numApps 1
config **.server.app[0].typename DhcpServer
config **.server.app[0].numReservedAddresses 100
config **.server.app[0].maxNumClients 100
config **.server.app[0].gateway "\"192.168.1.1\""
config **.server.app[0].leaseTime 1000s
config sim-time-limit 100d

vector 0 WiredNetWithDHCP.server.ethernet encapPk:vector(packetBytes) ETV
attr interpolationmode none
attr recordingmode vector(packetBytes)
attr source encapPk
attr title "packets encapsulated, packetBytes"
vector 1 WiredNetWithDHCP.server.ethernet decapPk:vector(packetBytes) ETV
attr interpolationmode none
attr recordingmode vector(packetBytes)
attr source decapPk
attr title "packets decapsulated, packetBytes"
vector 2 WiredNetWithDHCP.server.ethernet pauseSent:vector ETV
attr recordingmode vector
attr title "pause sent"
vector 3 WiredNetWithDHCP.server.lo[0].lo rcvdPkFromHl:vector(packetBytes) ETV
attr interpolationmode none
attr recordingmode vector(packetBytes)
attr source packetReceivedFromUpper
attr title "packets received from higher layer, packetBytes"
vector 4 WiredNetWithDHCP.server.lo[0].lo passedUpPk:vector(packetBytes) ETV
attr interpolationmode none
attr recordingmode vector(packetBytes)
attr source packetSentToUpper
attr title "packets passed to higher layer, packetBytes"
vector 5 WiredNetWithDHCP.server.lo[0] packetDropInterfaceDown:vector(packetBytes) ETV
attr interpolationmode none
attr recordingmode vector(packetBytes)
attr source packetDropReasonIsInterfaceDown(packetDropped)
attr title "packet drops: interface down, packetBytes"
vector 6 WiredNetWithDHCP.server.lo[0] packetDropNoCarrier:vector(packetBytes) ETV
attr interpolationmode none
attr recordingmode vector(packetBytes)
attr source packetDropReasonIsNoCarrier(packetDropped)
attr title "packet drops: no carrier, packetBytes"
vector 7 WiredNetWithDHCP.server.eth[0].queue queueLength:vector ETV
attr autoWarmupFilter false
attr interpolationmode sample-hold
attr recordingmode vector
attr source "warmup(atomic(constant0(packetPushEnded) + count(packetPushStarted) - count(packetPulled) - count(packetRemoved) - count(packetDropped)))"
attr title "queue length"
attr unit pk
vector 8 WiredNetWithDHCP.server.eth[0].queue queueBitLength:vector ETV
attr autoWarmupFilter false
attr interpolationmode sample-hold
attr recordingmode vector
attr source "warmup(atomic(constant0(packetPushEnded) + sum(packetLength(packetPushStarted)) - sum(packetLength(packetPulled)) - sum(packetLength(packetRemoved)) - sum(packetLength(packetDropped))))"
attr title "queue bit length"
attr unit b
vector 9 WiredNetWithDHCP.server.eth[0].queue queueingTime:vector ETV
attr interpolationmode none
attr recordingmode vector
attr source queueingTime(packetPulled)
attr title "queueing times"
attr unit s
vector 10 WiredNetWithDHCP.server.eth[0].queue incomingPacketLengths:vector ETV
attr interpolationmode none
attr recordingmode vector
attr source packetLength(packetPushStarted)
attr title "incoming packet lengths"
attr unit b
vector 11 WiredNetWithDHCP.server.eth[0].queue incomingDataRate:vector ETV
attr interpolationmode linear
attr recordingmode vector
attr source throughput(packetPushStarted)
attr title "incoming datarate"
attr unit bps
vector 12 WiredNetWithDHCP.server.eth[0].queue outgoingPacketLengths:vector ETV
attr interpolationmode none
attr recordingmode vector
attr source packetLength(packetPulled)
attr title "outgoing packet lengths"
attr unit b
vector 13 WiredNetWithDHCP.server.eth[0].queue outgoingDataRate:vector ETV
attr interpolationmode linear
attr recordingmode vector
attr source throughput(packetPulled)
attr title "outgoing datarate"
attr unit bps
vector 14 WiredNetWithDHCP.server.eth[0].queue droppedPacketLengthsQueueOverflow:vector ETV
attr interpolationmode none
attr recordingmode vector
attr source packetLength(packetDropReasonIsQueueOverflow(packetDropped))
attr title "dropped packet lengths: queue overflow"
attr unit b
vector 15 WiredNetWithDHCP.server.eth[0].queue flowQueueingTime:vector ETV
attr interpolationmode none
attr recordingmode vector
attr source queueingTime(demuxFlow(packetPulled))
attr title "flow queueing times"
attr unit s
vector 16 WiredNetWithDHCP.server.eth[0].queue flowIncomingDataRate:vector ETV
attr interpolationmode linear
attr recordingmode vector
attr source throughput(flowPacketLength(demuxFlow(packetPushStarted)))
attr title "flow specific incoming data rate"
attr unit bps
vector 17 WiredNetWithDHCP.server.eth[0].queue flowOutgoingDataRate:vector ETV
attr interpolationmode linear
attr recordingmode vector
attr source throughput(flowPacketLength(demuxFlow(packetPulled)))
attr title "flow specific outgoing data rate"
attr unit bps
vector 18 WiredNetWithDHCP.server.eth[0].mac txPk:vector(packetBytes) ETV
attr interpolationmode none
attr recordingmode vector(packetBytes)
attr source packetSentToLower
attr title "packets transmitted, packetBytes"
vector 19 WiredNetWithDHCP.server.eth[0].mac rxPkOk:vector(packetBytes) ETV
attr interpolationmode none
attr recordingmode vector(packetBytes)
attr source rxPkOk
attr title "packets received OK, packetBytes"
vector 20 WiredNetWithDHCP.server.eth[0].mac passedUpPk:vector(packetBytes) ETV
attr interpolationmode none
attr recordingmode vector(packetBytes)
attr source packetSentToUpper
attr title "packets passed to higher layer, packetBytes"
vector 21 WiredNetWithDHCP.server.eth[0].mac txPausePkUnits:vector ETV
attr interpolationmode none
attr recordingmode vector
attr title "pause units sent"
vector 22 WiredNetWithDHCP.server.eth[0].mac rxPausePkUnits:vector ETV
attr interpolationmode none
attr recordingmode vector
attr title "pause units received"
vector 23 WiredNetWithDHCP.server.eth[0].mac packetReceivedFromUpper:vector(packetBytes) ETV
attr interpolationmode none
attr recordingmode vector(packetBytes)
attr source packetReceivedFromUpper
attr title "packet bytes from higher layer, packetBytes"
vector 24 WiredNetWithDHCP.server.eth[0].mac packetDropIncorrectlyReceived:vector(packetBytes) ETV
attr interpolationmode none
attr recordingmode vector(packetBytes)
attr source packetDropReasonIsIncorrectlyReceived(packetDropped)
attr title "packet drop: incorrectly received, packetBytes"
vector 25 WiredNetWithDHCP.server.eth[0].mac packetDropInterfaceDown:vector(packetBytes) ETV
attr interpolationmode none
attr recordingmode vector(packetBytes)
attr source packetDropReasonIsInterfaceDown(packetDropped)
attr title "packet drop: interface down, packetBytes"
vector 26 WiredNetWithDHCP.server.eth[0].mac packetDropNotAddressedToUs:vector(packetBytes) ETV
attr interpolationmode none
attr recordingmode vector(packetBytes)
attr source packetDropReasonIsNotAddressedToUs(packetDropped)
attr title "packet drop: not addressed to us, packetBytes"
vector 27 WiredNetWithDHCP.server.eth[0] packetDropInterfaceDown:vector(packetBytes) ETV
attr interpolationmode none
attr recordingmode vector(packetBytes)
attr source packetDropReasonIsInterfaceDown(packetDropped)
attr title "packet drops: interface down, packetBytes"
vector 28 WiredNetWithDHCP.server.eth[0] packetDropNoCarrier:vector(packetBytes) ETV
attr interpolationmode none
attr recordingmode vector(packetBytes)
attr source packetDropReasonIsNoCarrier(packetDropped)
attr title "packet drops: no carrier, packetBytes"
vector 29 WiredNetWithDHCP.server.ipv4.ip packetDropAddressResolutionFailed:vector(packetBytes) ETV
attr interpolationmode none
attr recordingmode vector(packetBytes)
attr source packetDropReasonIsAddressResolutionFailed(packetDropped)
attr title "packet drop: address resolution failed, packetBytes"
vector 30 WiredNetWithDHCP.server.ipv4.ip packetDropHopLimitReached:vector(packetBytes) ETV
attr interpolationmode none
attr recordingmode vector(packetBytes)
attr source packetDropReasonIsHopLimitReached(packetDropped)
attr title "packet drop: hop limit reached, packetBytes"
vector 31 WiredNetWithDHCP.server.ipv4.ip packetDropForwardingDisabled:vector(packetBytes) ETV
attr interpolationmode none
attr recordingmode vector(packetBytes)
attr source packetDropReasonIsForwardingDisabled(packetDropped)
attr title "packet drop: forwarding disabled, packetBytes"
vector 32 WiredNetWithDHCP.server.ipv4.ip packetDropNoInterfaceFound:vector(packetBytes) ETV
attr interpolationmode none
attr recordingmode vector(packetBytes)
attr source packetDropReasonIsNoInterfaceFound(packetDropped)
attr title "packet drop: no interface found, packetBytes"
vector 33 WiredNetWithDHCP.server.ipv4.ip packetDropNoRouteFound:vector(packetBytes) ETV
attr interpolationmode none
attr recordingmode vector(packetBytes)
attr source packetDropReasonIsNoRouteFound(packetDropped)
attr title "packet drop: no route found, packetBytes"
vector 34 WiredNetWithDHCP.server.ipv4.ip packetDropUndefined:vector(packetBytes) ETV
attr interpolationmode none
attr recordingmode vector(packetBytes)
attr source packetDropReasonIsUndefined(packetDropped)
attr title "packet drop: undefined, packetBytes"
vector 35 WiredNetWithDHCP.server.ipv4.arp arpRequestSent:vector(packetBytes) ETV
attr recordingmode vector(packetBytes)
attr source arpRequestSent
attr title "ARP request sent, packetBytes"
vector 36 WiredNetWithDHCP.server.ipv4.arp arpReplySent:vector(packetBytes) ETV
attr recordingmode vector(packetBytes)
attr source arpReplySent
attr title "ARP replies sent, packetBytes"
vector 37 WiredNetWithDHCP.server.udp packetSent:vector(packetBytes) ETV
attr interpolationmode none
attr recordingmode vector(packetBytes)
attr source packetSent
attr title "packets sent, packetBytes"
vector 38 WiredNetWithDHCP.server.udp packetReceived:vector(packetBytes) ETV
attr interpolationmode none
attr recordingmode vector(packetBytes)
attr source packetReceived
attr title "packets received, packetBytes"
vector 39 WiredNetWithDHCP.server.udp passedUpPk:vector(count) ETV
attr interpolationmode none
attr recordingmode vector(count)
attr source packetSentToUpper
attr title "packets passed up, count"
vector 40 WiredNetWithDHCP.server.udp droppedPkWrongPort:vector(count) ETV
attr interpolationmode none
attr recordingmode vector(count)
attr source packetDropReasonIsNoPortFound(packetDropped)
attr title "packets dropped (wrong port), count"
vector 41 WiredNetWithDHCP.server.udp droppedPkBadChecksum:vector(count) ETV
attr interpolationmode none
attr recordingmode vector(count)
attr source packetDropReasonIsIncorrectlyReceived(packetDropped)
attr title "packets dropped (checksum error), count"
vector 42 WiredNetWithDHCP.switch.bridging packetDropped:vector(packetBytes) ETV
attr interpolationmode none
attr recordingmode vector(packetBytes)
attr title "packets dropped, packetBytes"
vector 43 WiredNetWithDHCP.switch.ethernet encapPk:vector(packetBytes) ETV
attr interpolationmode none
attr recordingmode vector(packetBytes)
attr source encapPk
attr title "packets encapsulated, packetBytes"
vector 44 WiredNetWithDHCP.switch.ethernet decapPk:vector(packetBytes) ETV
attr interpolationmode none
attr recordingmode vector(packetBytes)
attr source decapPk
attr title "packets decapsulated, packetBytes"
vector 45 WiredNetWithDHCP.switch.ethernet pauseSent:vector ETV
attr recordingmode vector
attr title "pause sent"
vector 46 WiredNetWithDHCP.switch.ieee8021q.qTagHeaderInserter incomingPacketLengths:vector ETV
attr interpolationmode none
attr recordingmode vector
attr source "packetLength(merge(packetPushedIn, packetPulledIn))"
attr title "incoming packet lengths"
attr unit b
vector 47 WiredNetWithDHCP.switch.ieee8021q.qTagHeaderInserter incomingDataRate:vector ETV
attr interpolationmode linear
attr recordingmode vector
attr source "throughput(merge(packetPushedIn, packetPulledIn))"
attr title "incoming data rate"
attr unit bps
vector 48 WiredNetWithDHCP.switch.ieee8021q.qTagHeaderInserter outgoingPacketLengths:vector ETV
attr interpolationmode none
attr recordingmode vector
attr source "packetLength(merge(packetPushedOut, packetPulledOut))"
attr title "outgoing packet lengths"
attr unit b
vector 49 WiredNetWithDHCP.switch.ieee8021q.qTagHeaderInserter outgoingDataRate:vector ETV
attr interpolationmode linear
attr recordingmode vector
attr source "throughput(merge(packetPushedOut, packetPulledOut))"
attr title "outgoing data rate"
attr unit bps
vector 50 WiredNetWithDHCP.switch.ieee8021q.qTagHeaderInserter flowIncomingPacketLengths:vector ETV
attr interpolationmode none
attr recordingmode vector
attr source "packetLength(demuxFlow(merge(packetPushedIn, packetPulledIn)))"
attr title "flow specific incoming packet lengths"
attr unit b
vector 51 WiredNetWithDHCP.switch.ieee8021q.qTagHeaderInserter flowIncomingDataRate:vector ETV
attr interpolationmode linear
attr recordingmode vector
attr source "throughput(demuxFlow(merge(packetPushedIn, packetPulledIn)))"
attr title "flow specific incoming data rate"
attr unit bps
vector 52 WiredNetWithDHCP.switch.ieee8021q.qTagHeaderInserter flowOutgoingPacketLengths:vector ETV
attr interpolationmode none
attr recordingmode vector
attr source "packetLength(demuxFlow(merge(packetPushedOut, packetPulledOut)))"
attr title "flow specific outgoing packet lengths"
attr unit b
vector 53 WiredNetWithDHCP.switch.ieee8021q.qTagHeaderInserter flowOutgoingDataRate:vector ETV
attr interpolationmode linear
attr recordingmode vector
attr source "throughput(demuxFlow(merge(packetPushedOut, packetPulledOut)))"
attr title "flow specific outgoing data rate"
attr unit bps
vector 54 WiredNetWithDHCP.switch.ieee8021q.qTagHeaderChecker incomingPacketLengths:vector ETV
attr interpolationmode none
attr recordingmode vector
attr source "packetLength(merge(packetPushedIn, packetPulledIn))"
attr title "incoming packet lengths"
attr unit b
vector 55 WiredNetWithDHCP.switch.ieee8021q.qTagHeaderChecker incomingDataRate:vector ETV
attr interpolationmode linear
attr recordingmode vector
attr source "throughput(merge(packetPushedIn, packetPulledIn))"
attr title "incoming data rate"
attr unit bps
vector 56 WiredNetWithDHCP.switch.ieee8021q.qTagHeaderChecker outgoingPacketLengths:vector ETV
attr interpolationmode none
attr recordingmode vector
attr source "packetLength(merge(packetPushedOut, packetPulledOut))"
attr title "outgoing packet lengths"
attr unit b
vector 57 WiredNetWithDHCP.switch.ieee8021q.qTagHeaderChecker outgoingDataRate:vector ETV
attr interpolationmode linear
attr recordingmode vector
attr source "throughput(merge(packetPushedOut, packetPulledOut))"
attr title "outgoing data rate"
attr unit bps
vector 58 WiredNetWithDHCP.switch.ieee8021q.qTagHeaderChecker droppedPacketLengths:vector ETV
attr interpolationmode none
attr recordingmode vector
attr source packetLength(packetDropped)
attr title "dropped packet lengths"
attr unit b
vector 59 WiredNetWithDHCP.switch.ieee8021q.qTagHeaderChecker droppedDataRate:vector ETV
attr interpolationmode linear
attr recordingmode vector
attr source throughput(packetDropped)
attr title "dropped data rate"
attr unit bps
vector 60 WiredNetWithDHCP.switch.ieee8021q.qTagHeaderChecker flowIncomingPacketLengths:vector ETV
attr interpolationmode none
attr recordingmode vector
attr source "packetLength(demuxFlow(merge(packetPushedIn, packetPulledIn)))"
attr title "flow specific incoming packet lengths"
attr unit b
vector 61 WiredNetWithDHCP.switch.ieee8021q.qTagHeaderChecker flowIncomingDataRate:vector ETV
attr interpolationmode linear
attr recordingmode vector
attr source "throughput(demuxFlow(merge(packetPushedIn, packetPulledIn)))"
attr title "flow specific incoming data rate"
attr unit bps
vector 62 WiredNetWithDHCP.switch.ieee8021q.qTagHeaderChecker flowOutgoingPacketLengths:vector ETV
attr interpolationmode none
attr recordingmode vector
attr source "packetLength(demuxFlow(merge(packetPushedOut, packetPulledOut)))"
attr title "flow specific outgoing packet lengths"
attr unit b
vector 63 WiredNetWithDHCP.switch.ieee8021q.qTagHeaderChecker flowOutgoingDataRate:vector ETV
attr interpolationmode linear
attr recordingmode vector
attr source "throughput(demuxFlow(merge(packetPushedOut, packetPulledOut)))"
attr title "flow specific outgoing data rate"
attr unit bps
vector 64 WiredNetWithDHCP.switch.ieee8021q.qTagHeaderChecker flowDroppedPacketLengths:vector ETV
attr interpolationmode none
attr recordingmode vector
attr source packetLength(demuxFlow(packetDropped))
attr title "flow specific dropped packet lengths"
attr unit b
vector 65 WiredNetWithDHCP.switch.ieee8021q.qTagHeaderChecker flowDroppedDataRate:vector ETV
attr interpolationmode linear
attr recordingmode vector
attr source throughput(demuxFlow(packetDropped))
attr title "flow specific dropped data rate"
attr unit bps
vector 66 WiredNetWithDHCP.switch.ieee8021r.rTagHeaderInserter incomingPacketLengths:vector ETV
attr interpolationmode none
attr recordingmode vector
attr source "packetLength(merge(packetPushedIn, packetPulledIn))"
attr title "incoming packet lengths"
attr unit b
vector 67 WiredNetWithDHCP.switch.ieee8021r.rTagHeaderInserter incomingDataRate:vector ETV
attr interpolationmode linear
attr recordingmode vector
attr source "throughput(merge(packetPushedIn, packetPulledIn))"
attr title "incoming data rate"
attr unit bps
vector 68 WiredNetWithDHCP.switch.ieee8021r.rTagHeaderInserter outgoingPacketLengths:vector ETV
attr interpolationmode none
attr recordingmode vector
attr source "packetLength(merge(packetPushedOut, packetPulledOut))"
attr title "outgoing packet lengths"
attr unit b
vector 69 WiredNetWithDHCP.switch.ieee8021r.rTagHeaderInserter outgoingDataRate:vector ETV
attr interpolationmode linear
attr recordingmode vector
attr source "throughput(merge(packetPushedOut, packetPulledOut))"
attr title "outgoing data rate"
attr unit bps
vector 70 WiredNetWithDHCP.switch.ieee8021r.rTagHeaderInserter flowIncomingPacketLengths:vector ETV
attr interpolationmode none
attr recordingmode vector
attr source "packetLength(demuxFlow(merge(packetPushedIn, packetPulledIn)))"
attr title "flow specific incoming packet lengths"
attr unit b
vector 71 WiredNetWithDHCP.switch.ieee8021r.rTagHeaderInserter flowIncomingDataRate:vector ETV
attr interpolationmode linear
attr recordingmode vector
attr source "throughput(demuxFlow(merge(packetPushedIn, packetPulledIn)))"
attr title "flow specific incoming data rate"
attr unit bps
vector 72 WiredNetWithDHCP.switch.ieee8021r.rTagHeaderInserter flowOutgoingPacketLengths:vector ETV
attr interpolationmode none
attr recordingmode vector
attr source "packetLength(demuxFlow(merge(packetPushedOut, packetPulledOut)))"
attr title "flow specific outgoing packet lengths"
attr unit b
vector 73 WiredNetWithDHCP.switch.ieee8021r.rTagHeaderInserter flowOutgoingDataRate:vector ETV
attr interpolationmode linear
attr recordingmode vector
attr source "throughput(demuxFlow(merge(packetPushedOut, packetPulledOut)))"
attr title "flow specific outgoing data rate"
attr unit bps
vector 74 WiredNetWithDHCP.switch.ieee8021r.rTagHeaderChecker incomingPacketLengths:vector ETV
attr interpolationmode none
attr recordingmode vector
attr source "packetLength(merge(packetPushedIn, packetPulledIn))"
attr title "incoming packet lengths"
attr unit b
vector 75 WiredNetWithDHCP.switch.ieee8021r.rTagHeaderChecker incomingDataRate:vector ETV
attr interpolationmode linear
attr recordingmode vector
attr source "throughput(merge(packetPushedIn, packetPulledIn))"
attr title "incoming data rate"
attr unit bps
vector 76 WiredNetWithDHCP.switch.ieee8021r.rTagHeaderChecker outgoingPacketLengths:vector ETV
attr interpolationmode none
attr recordingmode vector
attr source "packetLength(merge(packetPushedOut, packetPulledOut))"
attr title "outgoing packet lengths"
attr unit b
vector 77 WiredNetWithDHCP.switch.ieee8021r.rTagHeaderChecker outgoingDataRate:vector ETV
attr interpolationmode linear
attr recordingmode vector
attr source "throughput(merge(packetPushedOut, packetPulledOut))"
attr title "outgoing data rate"
attr unit bps
vector 78 WiredNetWithDHCP.switch.ieee8021r.rTagHeaderChecker droppedPacketLengths:vector ETV
attr interpolationmode none
attr recordingmode vector
attr source packetLength(packetDropped)
attr title "dropped packet lengths"
attr unit b
vector 79 WiredNetWithDHCP.switch.ieee8021r.rTagHeaderChecker droppedDataRate:vector ETV
attr interpolationmode linear
attr recordingmode vector
attr source throughput(packetDropped)
attr title "dropped data rate"
attr unit bps
vector 80 WiredNetWithDHCP.switch.ieee8021r.rTagHeaderChecker flowIncomingPacketLengths:vector ETV
attr interpolationmode none
attr recordingmode vector
attr source "packetLength(demuxFlow(merge(packetPushedIn, packetPulledIn)))"
attr title "flow specific incoming packet lengths"
attr unit b
vector 81 WiredNetWithDHCP.switch.ieee8021r.rTagHeaderChecker flowIncomingDataRate:vector ETV
attr interpolationmode linear
attr recordingmode vector
attr source "throughput(demuxFlow(merge(packetPushedIn, packetPulledIn)))"
attr title "flow specific incoming data rate"
attr unit bps
vector 82 WiredNetWithDHCP.switch.ieee8021r.rTagHeaderChecker flowOutgoingPacketLengths:vector ETV
attr interpolationmode none
attr recordingmode vector
attr source "packetLength(demuxFlow(merge(packetPushedOut, packetPulledOut)))"
attr title "flow specific outgoing packet lengths"
attr unit b
vector 83 WiredNetWithDHCP.switch.ieee8021r.rTagHeaderChecker flowOutgoingDataRate:vector ETV
attr interpolationmode linear
attr recordingmode vector
attr source "throughput(demuxFlow(merge(packetPushedOut, packetPulledOut)))"
attr title "flow specific outgoing data rate"
attr unit bps
vector 84 WiredNetWithDHCP.switch.ieee8021r.rTagHeaderChecker flowDroppedPacketLengths:vector ETV
attr interpolationmode none
attr recordingmode vector
attr source packetLength(demuxFlow(packetDropped))
attr title "flow specific dropped packet lengths"
attr unit b
vector 85 WiredNetWithDHCP.switch.ieee8021r.rTagHeaderChecker flowDroppedDataRate:vector ETV
attr interpolationmode linear
attr recordingmode vector
attr source throughput(demuxFlow(packetDropped))
attr title "flow specific dropped data rate"
attr unit bps
vector 86 WiredNetWithDHCP.switch.eth[0].queue queueLength:vector ETV
attr autoWarmupFilter false
attr interpolationmode sample-hold
attr recordingmode vector
attr source "warmup(atomic(constant0(packetPushEnded) + count(packetPushStarted) - count(packetPulled) - count(packetRemoved) - count(packetDropped)))"
attr title "queue length"
attr unit pk
vector 87 WiredNetWithDHCP.switch.eth[0].queue queueBitLength:vector ETV
attr autoWarmupFilter false
attr interpolationmode sample-hold
attr recordingmode vector
attr source "warmup(atomic(constant0(packetPushEnded) + sum(packetLength(packetPushStarted)) - sum(packetLength(packetPulled)) - sum(packetLength(packetRemoved)) - sum(packetLength(packetDropped))))"
attr title "queue bit length"
attr unit b
vector 88 WiredNetWithDHCP.switch.eth[0].queue queueingTime:vector ETV
attr interpolationmode none
attr recordingmode vector
attr source queueingTime(packetPulled)
attr title "queueing times"
attr unit s
vector 89 WiredNetWithDHCP.switch.eth[0].queue incomingPacketLengths:vector ETV
attr interpolationmode none
attr recordingmode vector
attr source packetLength(packetPushStarted)
attr title "incoming packet lengths"
attr unit b
vector 90 WiredNetWithDHCP.switch.eth[0].queue incomingDataRate:vector ETV
attr interpolationmode linear
attr recordingmode vector
attr source throughput(packetPushStarted)
attr title "incoming datarate"
attr unit bps
vector 91 WiredNetWithDHCP.switch.eth[0].queue outgoingPacketLengths:vector ETV
attr interpolationmode none
attr recordingmode vector
attr source packetLength(packetPulled)
attr title "outgoing packet lengths"
attr unit b
vector 92 WiredNetWithDHCP.switch.eth[0].queue outgoingDataRate:vector ETV
attr interpolationmode linear
attr recordingmode vector
attr source throughput(packetPulled)
attr title "outgoing datarate"
attr unit bps
vector 93 WiredNetWithDHCP.switch.eth[0].queue droppedPacketLengthsQueueOverflow:vector ETV
attr interpolationmode none
attr recordingmode vector
attr source packetLength(packetDropReasonIsQueueOverflow(packetDropped))
attr title "dropped packet lengths: queue overflow"
attr unit b
vector 94 WiredNetWithDHCP.switch.eth[0].queue flowQueueingTime:vector ETV
attr interpolationmode none
attr recordingmode vector
attr source queueingTime(demuxFlow(packetPulled))
attr title "flow queueing times"
attr unit s
vector 95 WiredNetWithDHCP.switch.eth[0].queue flowIncomingDataRate:vector ETV
attr interpolationmode linear
attr recordingmode vector
attr source throughput(flowPacketLength(demuxFlow(packetPushStarted)))
attr title "flow specific incoming data rate"
attr unit bps
vector 96 WiredNetWithDHCP.switch.eth[0].queue flowOutgoingDataRate:vector ETV
attr interpolationmode linear
attr recordingmode vector
attr source throughput(flowPacketLength(demuxFlow(packetPulled)))
attr title "flow specific outgoing data rate"
attr unit bps
vector 97 WiredNetWithDHCP.switch.eth[0].mac txPk:vector(packetBytes) ETV
attr interpolationmode none
attr recordingmode vector(packetBytes)
attr source packetSentToLower
attr title "packets transmitted, packetBytes"
vector 98 WiredNetWithDHCP.switch.eth[0].mac rxPkOk:vector(packetBytes) ETV
attr interpolationmode none
attr recordingmode vector(packetBytes)
attr source rxPkOk
attr title "packets received OK, packetBytes"
vector 99 WiredNetWithDHCP.switch.eth[0].mac passedUpPk:vector(packetBytes) ETV
attr interpolationmode none
attr recordingmode vector(packetBytes)
attr source packetSentToUpper
attr title "packets passed to higher layer, packetBytes"
vector 100 WiredNetWithDHCP.switch.eth[0].mac txPausePkUnits:vector ETV
attr interpolationmode none
attr recordingmode vector
attr title "pause units sent"
vector 101 WiredNetWithDHCP.switch.eth[0].mac rxPausePkUnits:vector ETV
attr interpolationmode none
attr recordingmode vector
attr title "pause units received"
vector 102 WiredNetWithDHCP.switch.eth[0].mac packetReceivedFromUpper:vector(packetBytes) ETV
attr interpolationmode none
attr recordingmode vector(packetBytes)
attr source packetReceivedFromUpper
attr title "packet bytes from higher layer, packetBytes"
vector 103 WiredNetWithDHCP.switch.eth[0].mac packetDropIncorrectlyReceived:vector(packetBytes) ETV
attr interpolationmode none
attr recordingmode vector(packetBytes)
attr source packetDropReasonIsIncorrectlyReceived(packetDropped)
attr title "packet drop: incorrectly received, packetBytes"
vector 104 WiredNetWithDHCP.switch.eth[0].mac packetDropInterfaceDown:vector(packetBytes) ETV
attr interpolationmode none
attr recordingmode vector(packetBytes)
attr source packetDropReasonIsInterfaceDown(packetDropped)
attr title "packet drop: interface down, packetBytes"
vector 105 WiredNetWithDHCP.switch.eth[0].mac packetDropNotAddressedToUs:vector(packetBytes) ETV
attr interpolationmode none
attr recordingmode vector(packetBytes)
attr source packetDropReasonIsNotAddressedToUs(packetDropped)
attr title "packet drop: not addressed to us, packetBytes"
vector 106 WiredNetWithDHCP.switch.eth[0] packetDropInterfaceDown:vector(packetBytes) ETV
attr interpolationmode none
attr recordingmode vector(packetBytes)
attr source packetDropReasonIsInterfaceDown(packetDropped)
attr title "packet drops: interface down, packetBytes"
vector 107 WiredNetWithDHCP.switch.eth[0] packetDropNoCarrier:vector(packetBytes) ETV
attr interpolationmode none
attr recordingmode vector(packetBytes)
attr source packetDropReasonIsNoCarrier(packetDropped)
attr title "packet drops: no carrier, packetBytes"
vector 108 WiredNetWithDHCP.switch.eth[1].queue queueLength:vector ETV
attr autoWarmupFilter false
attr interpolationmode sample-hold
attr recordingmode vector
attr source "warmup(atomic(constant0(packetPushEnded) + count(packetPushStarted) - count(packetPulled) - count(packetRemoved) - count(packetDropped)))"
attr title "queue length"
attr unit pk
vector 109 WiredNetWithDHCP.switch.eth[1].queue queueBitLength:vector ETV
attr autoWarmupFilter false
attr interpolationmode sample-hold
attr recordingmode vector
attr source "warmup(atomic(constant0(packetPushEnded) + sum(packetLength(packetPushStarted)) - sum(packetLength(packetPulled)) - sum(packetLength(packetRemoved)) - sum(packetLength(packetDropped))))"
attr title "queue bit length"
attr unit b
vector 110 WiredNetWithDHCP.switch.eth[1].queue queueingTime:vector ETV
attr interpolationmode none
attr recordingmode vector
attr source queueingTime(packetPulled)
attr title "queueing times"
attr unit s
vector 111 WiredNetWithDHCP.switch.eth[1].queue incomingPacketLengths:vector ETV
attr interpolationmode none
attr recordingmode vector
attr source packetLength(packetPushStarted)
attr title "incoming packet lengths"
attr unit b
vector 112 WiredNetWithDHCP.switch.eth[1].queue incomingDataRate:vector ETV
attr interpolationmode linear
attr recordingmode vector
attr source throughput(packetPushStarted)
attr title "incoming datarate"
attr unit bps
vector 113 WiredNetWithDHCP.switch.eth[1].queue outgoingPacketLengths:vector ETV
attr interpolationmode none
attr recordingmode vector
attr source packetLength(packetPulled)
attr title "outgoing packet lengths"
attr unit b
vector 114 WiredNetWithDHCP.switch.eth[1].queue outgoingDataRate:vector ETV
attr interpolationmode linear
attr recordingmode vector
attr source throughput(packetPulled)